 Q-Chem 6.1, Q-Chem, Inc., Pleasanton, CA (2022)
 Q-Chem 6.1.0 for Intel X86 EM64T Linux

User input:
--------------------------------------------------------------
$molecule
2 1
Cu      1.5845062622     0.0960274548    -0.0097387695
Cu     -1.2333865956     0.3294964495    -0.0189848584
O       0.1762707203     0.2710185015     1.0885221498
O       0.1717365358     0.1487814510    -1.1162208774
N      -2.8227065495     0.5485268778     1.1212842865
N      -2.8157223245     0.4145387179    -1.1858372129
N       3.1811910869     0.0411751113     1.1532180030
N       3.1840041456    -0.0744352397    -1.1573652619
H      -2.8382796461     1.3930745868     1.6865530132
H      -2.9699662512    -0.4450143577    -1.7059709987
H       3.2215454392    -0.7622119587     1.7747775487
H       3.3224275429     0.6953105860    -1.8067293803
H       3.3166428854     0.8726888487     1.7220761457
H       3.2262363800    -0.9361572468    -1.6950738951
H      -2.9849994135    -0.2424703742     1.7384258663
H      -2.8287121960     1.1859179565    -1.8474546647
C      -3.7439524459     0.5901313822    -0.0417606656
C       4.1126016694    -0.0510211513     0.0009756566
H      -4.2569272060     1.5475120295    -0.0984203051
H      -4.4775840458    -0.2111823165     0.0039550740
H       4.7121614762    -0.9573887049     0.0463513930
H       4.7676535098     0.8161786162    -0.0414173135
C      -2.0706431930    -2.7130636067     0.1663655641
H      -1.5804924475    -2.3095047783     1.0557157463
H      -3.1164624143    -2.3971458638     0.1195141019
H      -2.0562110058    -3.8001984031     0.2314223469
H      -1.5322219189    -2.4150145680    -0.7367326929
$end

$rem
basis = gen
ecp = gen
method = wb97xd
job_type = optimization
geom_opt_max_cycles = 500
scf_max_cycles = 300
mem_static = 5000
mem_total = 192000
scf_convergence = 8
symmetry = false
sym_ignore = true
unrestricted = 1
thresh = 14
scf_algorithm = DIIS_GDM
$end

$ecp
Cu
srsc
****
$end

$basis
Cu
srsc
****
O
6-311+G*
****
C
6-311+G*
****
N
6-311+G*
****
H
6-311+G*
****
$end

--------------------------------------------------------------

   48    -887.4567351604      9.61e-09  Convergence criterion met
 Total energy in the final basis set =     -887.4567351604
   25    -887.4567353186      8.53e-09  Convergence criterion met
 Total energy in the final basis set =     -887.4567353186

                    Orbital Energies (a.u.)
 --------------------------------------------------------------

 Alpha MOs
 -- Occupied --
-19.5445 -19.5444 -14.7678 -14.7678 -14.7672 -14.7671 -10.6487 -10.6478
-10.4908  -5.0381  -5.0369  -3.3346  -3.3324  -3.3306  -3.3284  -3.3045
 -3.3038  -1.3588  -1.3562  -1.3365  -1.2852  -1.2781  -1.2773  -1.0612
 -1.0604  -1.0240  -0.9411  -0.9406  -0.9178  -0.9173  -0.8890  -0.8886
 -0.8410  -0.8404  -0.8298  -0.8185  -0.8142  -0.7957  -0.7792  -0.7764
 -0.7739  -0.7692  -0.7624  -0.7617  -0.7598  -0.7533  -0.7252  -0.7246
 -0.7159  -0.7117  -0.7094  -0.6990  -0.6911  -0.6851  -0.6616  -0.6522
 -0.6344

 Beta MOs
 -- Occupied --
-19.5360 -19.5360 -14.7688 -14.7688 -14.7680 -14.7679 -10.6486 -10.6478
-10.4908  -5.0577  -5.0563  -3.3615  -3.3599  -3.3573  -3.3559  -3.3121
 -3.3104  -1.3589  -1.3577  -1.3124  -1.2802  -1.2791  -1.2577  -1.0618
 -1.0609  -1.0240  -0.9418  -0.9413  -0.9197  -0.9185  -0.8899  -0.8896
 -0.8522  -0.8426  -0.8413  -0.8193  -0.8133  -0.8128  -0.8005  -0.7807
 -0.7799  -0.7746  -0.7691  -0.7687  -0.7620  -0.7572  -0.7296  -0.7213
 -0.7204  -0.7119  -0.7092  -0.6949  -0.6715  -0.6608  -0.6560  -0.6465
 -0.6249

          Ground-State Mulliken Net Atomic Charges

     Atom                 Charge (a.u.)    Spin (a.u.)
  --------------------------------------------------------
      1 Cu                    0.353128      -0.320807
      2 Cu                    0.227973      -0.282135
      3 O                     0.060170       0.375392
      4 O                     0.063981       0.372766
      5 N                    -0.642536      -0.036214
      6 N                    -0.643662      -0.036117
      7 N                    -0.674030      -0.043096
      8 N                    -0.675436      -0.043201
      9 H                     0.479833       0.000422
     10 H                     0.492257       0.000564
     11 H                     0.485629       0.000699
     12 H                     0.485719       0.000690
     13 H                     0.486317       0.000683
     14 H                     0.485966       0.000704
     15 H                     0.490707       0.000575
     16 H                     0.480376       0.000408
     17 C                    -0.715093       0.003321
     18 C                    -0.805249       0.005621
     19 H                     0.361186       0.000018
     20 H                     0.368772       0.000046
     21 H                     0.362704       0.000044
     22 H                     0.363235       0.000027
     23 C                    -1.026909      -0.000492
     24 H                     0.272372       0.000018
     25 H                     0.246765       0.000031
     26 H                     0.342284       0.000024
     27 H                     0.273540       0.000010
  --------------------------------------------------------
  Sum of atomic charges =     2.000000

                    Cartesian Multipole Moments
 -----------------------------------------------------------------
    Charge (ESU x 10^10)
                 9.6064
    Dipole Moment (Debye)
         X       1.4842      Y       1.2634      Z      -0.1087
       Tot       1.9521
    Quadrupole Moments (Debye-Ang)
        XX      44.1978     XY      -6.9488     YY     -62.8444
        XZ       0.3675     YZ       0.1635     ZZ     -58.8301

 Final energy is -887.456735318583
	**  OPTIMIZATION CONVERGED  **

             Standard Nuclear Orientation (Angstroms)
    I     Atom           X                Y                Z
 ----------------------------------------------------------------
    1      Cu      1.5845322447     0.0960426687    -0.0097425943
    2      Cu     -1.2333509841     0.3294529450    -0.0189631990
    3      O       0.1763903899     0.2709399988     1.0885589736
    4      O       0.1718433578     0.1487922535    -1.1162357778
    5      N      -2.8227771386     0.5485002444     1.1213168626
    6      N      -2.8157594498     0.4145196156    -1.1858846730
    7      N       3.1813022198     0.0411638536     1.1532231916
    8      N       3.1841000292    -0.0743921063    -1.1573940477
    9      H      -2.8383422819     1.3930442912     1.6865899088
   10      H      -2.9700395044    -0.4450385982    -1.7060039755
   11      H       3.2215676502    -0.7622544287     1.7747477083
   12      H       3.3224258789     0.6953704556    -1.8067577067
   13      H       3.3166481302     0.8726802989     1.7220996333
   14      H       3.2262298244    -0.9361244725    -1.6950941919
   15      H      -2.9851295364    -0.2425002268     1.7384424501
   16      H      -2.8287210595     1.1858980156    -1.8475002040
   17      C      -3.7439734225     0.5901387781    -0.0417866341
   18      C       4.1126863888    -0.0510018725     0.0009624591
   19      H      -4.2569811524     1.5475001714    -0.0984450034
   20      H      -4.4775894848    -0.2111912497     0.0039137151
   21      H       4.7122445565    -0.9573709009     0.0463163426
   22      H       4.7677589932     0.8161840074    -0.0414097486
   23      C      -2.0707137777    -2.7130324279     0.1664075331
   24      H      -1.5806263129    -2.3095001446     1.0558054903
   25      H      -3.1165353551    -2.3971311218     0.1194967149
   26      H      -2.0562494600    -3.8001691268     0.2314365513
   27      H      -1.5322307435    -2.4149509207    -0.7366497784
 ----------------------------------------------------------------

 Total job time:  85.90s(wall), 4523.20s(cpu)
        *  Thank you very much for using Q-Chem.  Have a nice day.  *
