 Q-Chem 5.4, Q-Chem, Inc., Pleasanton, CA (2021)
 Q-Chem 5.4.2 for Intel X86 EM64T Linux

User input:
--------------------------------------------------------------
$molecule
0 1
C      2.6302422690      4.5765983056      1.0360202725
C      3.1071480250      3.1430577752      0.7673265751
N      4.5334035432      2.9890617388      0.8622862533
H      2.9892113727      4.9409467179      2.0008032062
H      2.9537872810      5.2645393087      0.2538926867
H      2.6317974116      2.4553749962      1.4591842251
H      1.5403493137      4.5648944767      1.0505166773
C      5.2024568383      2.5139461408      2.0495656330
H      5.9559415752      3.2618408306      2.3176602297
H      5.7699332778      1.6195021251      1.7424613648
H      2.8117806646      2.8382123665     -0.2394602148
C      4.3140132009      2.2004401360      3.2356136063
H      3.6270033264      1.3831386944      3.0161055749
H      4.9541899818      1.8820196823      4.0595389144
H      3.7454689823      3.0734971016      3.5645536214
C      5.3780750485      3.5485901120     -0.1828762817
H      6.1946384201      2.8444806550     -0.3396512830
H      4.7853605209      3.5842421439     -1.0958940581
C      5.9378655668      4.9325889923      0.1572387181
H      6.5264956013      5.2796105516     -0.6928263085
H      5.1470152688      5.6583038434      0.3458344090
H      6.5946675674      4.8983471774      1.0278931962
C      3.7554601108     -0.0640961787      0.2327306623
C      4.7465138465      0.3097951638     -0.7400803491
H      4.4378777251      0.7572281445     -1.6772901296
C      6.0950747576      0.1288932857     -0.5115775444
H      6.8049182994      0.4347275260     -1.2752815690
C      6.5665241779     -0.4245017893      0.6853467350
H      7.6260152386     -0.5747059256      0.8540031922
C      5.6109672677     -0.8890618448      1.6173911206
H      5.9466869661     -1.3917553687      2.5195352877
C      4.2655963308     -0.7208654212      1.4044958372
H      3.5737852142     -1.1178254042      2.1382212210
C      2.3716345813      0.2363947452      0.0620982677
C      1.8415616448      0.7548619152     -1.1638243261
H      2.4493149872      0.7468143044     -2.0611856804
C      0.5532214146      1.2313896170     -1.2596539304
H      0.2057647987      1.5896849016     -2.2241293555
C     -0.3349722567      1.2280006827     -0.1664675698
C      0.1499220726      0.6455221714      1.0257755442
H     -0.4927584665      0.6076631432      1.9000884446
C      1.4316045237      0.1620744934      1.1391261081
H      1.7424332300     -0.2392197523      2.0968717538
C     -1.6893490338      1.7893253875     -0.2669867802
C     -2.7487499627      1.3077685764      0.5206571177
H     -2.5764839422      0.4787272700      1.1979814690
C     -4.0226689509      1.8498788211      0.4287460108
H     -4.8185438745      1.4500349884      1.0482111883
C     -4.2888007710      2.8864604469     -0.4607092354
H     -5.2850833021      3.3073930200     -0.5344232119
C     -3.2549931828      3.3749305308     -1.2530048250
H     -3.4421966267      4.1863919163     -1.9485077327
C     -1.9779952056      2.8409291645     -1.1535780011
H     -1.1826246694      3.2609085964     -1.7594627376
$end

$rem
basis = 6-311g**
cis_state_deriv = 1
job_type = sp
method = wb97xd
cis_n_roots = 10
cis_singlets = 1
cis_triplets = 0
rpa = 2
pop_mulliken = -1
solvent_method = pcm
scf_convergence = 8
symmetry = false
symmetry_ignore = 1
thresh = 14
$end

$pcm
heavypoints 590
method swig
radii bondi
solver inversion
theory cpcm
$end

$solvent
dielectric 2.03
opticaldielectric 2.01
$end
--------------------------------------------------------------

             Standard Nuclear Orientation (Angstroms)
    I     Atom           X                Y                Z
 ----------------------------------------------------------------
    1      C       2.6302422690     4.5765983056     1.0360202725
    2      C       3.1071480250     3.1430577752     0.7673265751
    3      N       4.5334035432     2.9890617388     0.8622862533
    4      H       2.9892113727     4.9409467179     2.0008032062
    5      H       2.9537872810     5.2645393087     0.2538926867
    6      H       2.6317974116     2.4553749962     1.4591842251
    7      H       1.5403493137     4.5648944767     1.0505166773
    8      C       5.2024568383     2.5139461408     2.0495656330
    9      H       5.9559415752     3.2618408306     2.3176602297
   10      H       5.7699332778     1.6195021251     1.7424613648
   11      H       2.8117806646     2.8382123665    -0.2394602148
   12      C       4.3140132009     2.2004401360     3.2356136063
   13      H       3.6270033264     1.3831386944     3.0161055749
   14      H       4.9541899818     1.8820196823     4.0595389144
   15      H       3.7454689823     3.0734971016     3.5645536214
   16      C       5.3780750485     3.5485901120    -0.1828762817
   17      H       6.1946384201     2.8444806550    -0.3396512830
   18      H       4.7853605209     3.5842421439    -1.0958940581
   19      C       5.9378655668     4.9325889923     0.1572387181
   20      H       6.5264956013     5.2796105516    -0.6928263085
   21      H       5.1470152688     5.6583038434     0.3458344090
   22      H       6.5946675674     4.8983471774     1.0278931962
   23      C       3.7554601108    -0.0640961787     0.2327306623
   24      C       4.7465138465     0.3097951638    -0.7400803491
   25      H       4.4378777251     0.7572281445    -1.6772901296
   26      C       6.0950747576     0.1288932857    -0.5115775444
   27      H       6.8049182994     0.4347275260    -1.2752815690
   28      C       6.5665241779    -0.4245017893     0.6853467350
   29      H       7.6260152386    -0.5747059256     0.8540031922
   30      C       5.6109672677    -0.8890618448     1.6173911206
   31      H       5.9466869661    -1.3917553687     2.5195352877
   32      C       4.2655963308    -0.7208654212     1.4044958372
   33      H       3.5737852142    -1.1178254042     2.1382212210
   34      C       2.3716345813     0.2363947452     0.0620982677
   35      C       1.8415616448     0.7548619152    -1.1638243261
   36      H       2.4493149872     0.7468143044    -2.0611856804
   37      C       0.5532214146     1.2313896170    -1.2596539304
   38      H       0.2057647987     1.5896849016    -2.2241293555
   39      C      -0.3349722567     1.2280006827    -0.1664675698
   40      C       0.1499220726     0.6455221714     1.0257755442
   41      H      -0.4927584665     0.6076631432     1.9000884446
   42      C       1.4316045237     0.1620744934     1.1391261081
   43      H       1.7424332300    -0.2392197523     2.0968717538
   44      C      -1.6893490338     1.7893253875    -0.2669867802
   45      C      -2.7487499627     1.3077685764     0.5206571177
   46      H      -2.5764839422     0.4787272700     1.1979814690
   47      C      -4.0226689509     1.8498788211     0.4287460108
   48      H      -4.8185438745     1.4500349884     1.0482111883
   49      C      -4.2888007710     2.8864604469    -0.4607092354
   50      H      -5.2850833021     3.3073930200    -0.5344232119
   51      C      -3.2549931828     3.3749305308    -1.2530048250
   52      H      -3.4421966267     4.1863919163    -1.9485077327
   53      C      -1.9779952056     2.8409291645    -1.1535780011
   54      H      -1.1826246694     3.2609085964    -1.7594627376
 ----------------------------------------------------------------

   14    -986.6573642000      5.22e-09  Convergence criterion met
 Total energy in the final basis set =     -986.6573642000

             TDDFT Excitation Energies
 ---------------------------------------------------

 Excited state   1: excitation energy (eV) =    3.0146
 Total energy for state  1:                  -986.54658140 au
    Multiplicity: Singlet
    Trans. Mom.:  1.1122 X  -0.2661 Y   0.1123 Z
    Strength   :     0.0975277856
    X: D(   90) --> V(    1) amplitude =  0.9631
    X: D(   90) --> V(    3) amplitude = -0.2426

 Excited state   2: excitation energy (eV) =    3.9934
 Total energy for state  2:                  -986.51060862 au
    Multiplicity: Singlet
    Trans. Mom.: -3.1597 X   0.8476 Y  -0.3748 Z
    Strength   :     1.0607996657
    X: D(   89) --> V(    1) amplitude =  0.9679

 Excited state   3: excitation energy (eV) =    4.1611
 Total energy for state  3:                  -986.50444611 au
    Multiplicity: Singlet
    Trans. Mom.: -0.4800 X   0.2663 Y  -0.0964 Z
    Strength   :     0.0316643466
    X: D(   90) --> V(    2) amplitude =  0.8229
    X: D(   90) --> V(    4) amplitude = -0.3919
    X: D(   90) --> V(    5) amplitude = -0.2885

 Excited state   4: excitation energy (eV) =    4.6833
 Total energy for state  4:                  -986.48525485 au
    Multiplicity: Singlet
    Trans. Mom.: -0.0539 X   0.0577 Y   0.0459 Z
    Strength   :     0.0009572493
    X: D(   85) --> V(    1) amplitude = -0.4817
    X: D(   86) --> V(    1) amplitude = -0.2339
    X: D(   89) --> V(    2) amplitude =  0.5401
    X: D(   89) --> V(    5) amplitude =  0.2415
    X: D(   90) --> V(    5) amplitude = -0.4556

 Excited state   5: excitation energy (eV) =    4.9248
 Total energy for state  5:                  -986.47638181 au
    Multiplicity: Singlet
    Trans. Mom.: -0.0899 X   0.0468 Y  -0.1149 Z
    Strength   :     0.0028318137
    X: D(   87) --> V(    1) amplitude =  0.4955
    X: D(   88) --> V(    1) amplitude =  0.2686
    X: D(   89) --> V(    2) amplitude =  0.3677
    X: D(   90) --> V(    2) amplitude =  0.3878
    X: D(   90) --> V(    5) amplitude =  0.3770

 Excited state   6: excitation energy (eV) =    5.1306
 Total energy for state  6:                  -986.46881900 au
    Multiplicity: Singlet
    Trans. Mom.: -0.0007 X  -0.0540 Y   0.1226 Z
    Strength   :     0.0022548142
    X: D(   85) --> V(    1) amplitude = -0.3571
    X: D(   86) --> V(    1) amplitude =  0.4259
    X: D(   86) --> V(    3) amplitude =  0.3675
    X: D(   88) --> V(    4) amplitude =  0.3122
    X: D(   89) --> V(    4) amplitude = -0.4543

 Excited state   7: excitation energy (eV) =    5.1567
 Total energy for state  7:                  -986.46786008 au
    Multiplicity: Singlet
    Trans. Mom.:  0.0037 X  -0.2647 Y   0.2430 Z
    Strength   :     0.0163127999
    X: D(   90) --> V(    3) amplitude =  0.6365
    X: D(   90) --> V(    5) amplitude =  0.4532
    X: D(   90) --> V(    6) amplitude =  0.3105

 Excited state   8: excitation energy (eV) =    5.1900
 Total energy for state  8:                  -986.46663622 au
    Multiplicity: Singlet
    Trans. Mom.:  0.1395 X   0.1982 Y  -0.3642 Z
    Strength   :     0.0243361557
    X: D(   85) --> V(    1) amplitude =  0.4260
    X: D(   86) --> V(    1) amplitude =  0.2165
    X: D(   89) --> V(    5) amplitude = -0.2732
    X: D(   90) --> V(    3) amplitude =  0.4665
    X: D(   90) --> V(    5) amplitude = -0.4332
    X: D(   90) --> V(    6) amplitude =  0.2199

 Excited state   9: excitation energy (eV) =    5.4173
 Total energy for state  9:                  -986.45828119 au
    Multiplicity: Singlet
    Trans. Mom.:  0.4825 X  -0.3378 Y  -0.0138 Z
    Strength   :     0.0460634412
    X: D(   87) --> V(    1) amplitude = -0.3923
    X: D(   88) --> V(    1) amplitude =  0.6119
    X: D(   89) --> V(    3) amplitude = -0.5021
    X: D(   90) --> V(    3) amplitude = -0.2554
    X: D(   90) --> V(    6) amplitude = -0.2194

 Excited state  10: excitation energy (eV) =    5.5476
 Total energy for state 10:                  -986.45349423 au
    Multiplicity: Singlet
    Trans. Mom.: -0.0683 X  -0.2125 Y  -0.1403 Z
    Strength   :     0.0094439517
    X: D(   85) --> V(    1) amplitude =  0.2843
    X: D(   86) --> V(    1) amplitude =  0.2151
    X: D(   87) --> V(    1) amplitude = -0.4842
    X: D(   88) --> V(    1) amplitude = -0.3574
    X: D(   89) --> V(    2) amplitude =  0.6452

 ---------------------------------------------------

                    Orbital Energies (a.u.)
 --------------------------------------------------------------

 Alpha MOs
 -- Occupied --
-14.3814 -10.3070 -10.3061 -10.3055 -10.3042 -10.2930 -10.2926 -10.2918
-10.2910 -10.2909 -10.2903 -10.2903 -10.2902 -10.2901 -10.2900 -10.2897
-10.2895 -10.2889 -10.2878 -10.2877 -10.2838 -10.2817 -10.2620 -10.2553
-10.2501  -1.0019  -0.9807  -0.9660  -0.9485  -0.8962  -0.8595  -0.8556
 -0.8529  -0.8496  -0.8456  -0.8446  -0.8084  -0.7947  -0.7413  -0.7240
 -0.7198  -0.7064  -0.7005  -0.6960  -0.6738  -0.6699  -0.6327  -0.6324
 -0.6131  -0.5770  -0.5731  -0.5687  -0.5663  -0.5460  -0.5429  -0.5375
 -0.5367  -0.5226  -0.5185  -0.5123  -0.5106  -0.5087  -0.5011  -0.4986
 -0.4956  -0.4822  -0.4780  -0.4706  -0.4657  -0.4599  -0.4585  -0.4486
 -0.4429  -0.4411  -0.4378  -0.4325  -0.4286  -0.4232  -0.4220  -0.4134
 -0.4073  -0.4013  -0.3961  -0.3747  -0.3381  -0.3356  -0.3335  -0.3330
 -0.2800  -0.2375

          Ground-State Mulliken Net Atomic Charges

     Atom                 Charge (a.u.)
  ----------------------------------------
      1 C                    -0.309958
      2 C                    -0.117574
      3 N                    -0.410412
      4 H                     0.107489
      5 H                     0.110541
      6 H                     0.134281
      7 H                     0.103898
      8 C                    -0.052617
      9 H                     0.091214
     10 H                     0.126410
     11 H                     0.118319
     12 C                    -0.374021
     13 H                     0.113041
     14 H                     0.122204
     15 H                     0.123314
     16 C                    -0.145805
     17 H                     0.112679
     18 H                     0.115056
     19 C                    -0.298964
     20 H                     0.105122
     21 H                     0.112805
     22 H                     0.112688
     23 C                    -0.019197
     24 C                    -0.077490
     25 H                     0.116409
     26 C                    -0.112886
     27 H                     0.124332
     28 C                    -0.147175
     29 H                     0.122440
     30 C                    -0.109317
     31 H                     0.119646
     32 C                    -0.120413
     33 H                     0.125937
     34 C                    -0.052414
     35 C                    -0.120411
     36 H                     0.122644
     37 C                    -0.103058
     38 H                     0.122410
     39 C                    -0.014909
     40 C                    -0.110885
     41 H                     0.120124
     42 C                    -0.112953
     43 H                     0.121713
     44 C                    -0.046432
     45 C                    -0.103064
     46 H                     0.123821
     47 C                    -0.121709
     48 H                     0.122611
     49 C                    -0.115034
     50 H                     0.123815
     51 C                    -0.121751
     52 H                     0.122758
     53 C                    -0.103672
     54 H                     0.124399
  ----------------------------------------
  Sum of atomic charges =     0.000000

                    Cartesian Multipole Moments
 -----------------------------------------------------------------
    Charge (ESU x 10^10)
                -0.0000
    Dipole Moment (Debye)
         X      -0.1593      Y      -0.1789      Z       0.0096
       Tot       0.2397
    Quadrupole Moments (Debye-Ang)
        XX    -137.9189     XY      -5.7512     YY    -158.6351
        XZ      -2.0445     YZ     -10.6977     ZZ    -142.6051

 Total job time:  832.98s(wall), 13992.86s(cpu)
        *  Thank you very much for using Q-Chem.  Have a nice day.  *
