 Q-Chem 5.4, Q-Chem, Inc., Pleasanton, CA (2021)
 Q-Chem 5.4.2 for Intel X86 EM64T Linux

User input:
--------------------------------------------------------------
$molecule
0 1
C     -0.7522871938      4.9132714042      2.1288396993
C     -0.6243714806      3.5614984031      1.4191018912
N      0.3543851663      2.6913301697      2.0292001119
H     -1.0144597087      4.7897372791      3.1810500351
H      0.1696425671      5.4914357196      2.0660015801
H     -1.5827152381      3.0427182420      1.4320106212
H     -1.5503048886      5.4749255708      1.6428644589
C      0.1175980982      2.1062514747      3.3398342441
H      0.6044414267      2.7699502766      4.0671981069
H      0.6668262676      1.1635064276      3.3502739599
H     -0.3459039147      3.6912498931      0.3740541263
C     -1.3367800103      1.8758849033      3.7013167829
H     -1.8321705289      1.2515469479      2.9581672745
H     -1.3691106111      1.3595288093      4.6618298737
H     -1.8989735953      2.8051566136      3.8020771096
C      1.6921320494      2.6268346710      1.5091423392
H      2.2935762876      2.0293650443      2.1928187470
H      1.6316144363      2.0594395379      0.5692467946
C      2.3498006085      3.9785203075      1.2443230457
H      3.3532284691      3.7900467838      0.8623187954
H      1.8090505629      4.5590855479      0.4956380480
H      2.4329512706      4.5664876549      2.1608039209
C      3.2836201926     -0.3587054710     -0.0520825242
C      4.1305492433     -0.2896278851     -1.1800643832
H      3.7064484019     -0.0925155305     -2.1580758983
C      5.4950493274     -0.5046068845     -1.0782684414
H      6.1074967150     -0.4534902723     -1.9727555455
C      6.0832124804     -0.8010539877      0.1501181132
H      7.1508936674     -0.9711851360      0.2265034736
C      5.2693225254     -0.8773661999      1.2764682742
H      5.7053119647     -1.1016543931      2.2448777733
C      3.9032283247     -0.6584405698      1.1813358071
H      3.3048792629     -0.6990268601      2.0847839057
C      1.8536240004     -0.1024419070     -0.1367960705
C      1.2723554437      0.6594197767     -1.1961142437
H      1.8949467994      0.9855065930     -2.0227642334
C     -0.0422225944      1.0466238974     -1.1853856327
H     -0.4093797396      1.6182499592     -2.0298481476
C     -0.9408536607      0.6791110075     -0.1297509796
C     -0.3795772194     -0.1925445636      0.8600919935
H     -1.0110805583     -0.5947230872      1.6444093487
C      0.9441510587     -0.5521276361      0.8598564691
H      1.2929670422     -1.2246400475      1.6370129446
C     -2.2992849671      1.1524018587     -0.0711151578
C     -3.2569601966      0.6196655164      0.8352311556
H     -3.0017838153     -0.2396370041      1.4448167881
C     -4.5324134299      1.1439434314      0.9457071197
H     -5.2270212873      0.6957526004      1.6495862270
C     -4.9415373891      2.2227384551      0.1601593278
H     -5.9416719808      2.6298909963      0.2491711331
C     -4.0323805195      2.7497878729     -0.7568955349
H     -4.3256082929      3.5814202632     -1.3904272296
C     -2.7534750464      2.2345550506     -0.8763421171
H     -2.0804737934      2.6939494750     -1.5906512808
$end

$rem
basis = 6-311g**
cis_state_deriv = 1
job_type = optimization
method = wb97xd
geom_opt_dmax = 20
geom_opt_tol_gradient = 20
geom_opt_max_cycles = 100
max_cis_cycles = 100
cis_n_roots = 10
cis_singlets = 1
cis_triplets = 0
rpa = 2
mem_static = 2000
mem_total = 16000
solvent_method = pcm
scf_convergence = 8
symmetry = false
symmetry_ignore = 1
thresh = 14
$end

$pcm
heavypoints 590
method swig
radii bondi
solver inversion
theory cpcm
$end

$solvent
dielectric 2.03
opticaldielectric 2.01
$end
--------------------------------------------------------------

   14    -986.6577348853      5.31e-09  Convergence criterion met
 Total energy in the final basis set =     -986.6577348853
   10    -986.6576661693      5.70e-09  Convergence criterion met
 Total energy in the final basis set =     -986.6576661693
   10    -986.6577161684      6.10e-09  Convergence criterion met
 Total energy in the final basis set =     -986.6577161684
   10    -986.6577004479      5.69e-09  Convergence criterion met
 Total energy in the final basis set =     -986.6577004479
   10    -986.6577010082      5.81e-09  Convergence criterion met
 Total energy in the final basis set =     -986.6577010082
   10    -986.6576916825      5.75e-09  Convergence criterion met
 Total energy in the final basis set =     -986.6576916825
   10    -986.6576734083      5.82e-09  Convergence criterion met
 Total energy in the final basis set =     -986.6576734083
   10    -986.6576574614      5.88e-09  Convergence criterion met
   10    -986.6574446731      5.65e-09  Convergence criterion met
 Total energy in the final basis set =     -986.6574446731
   10    -986.6574367342      5.65e-09  Convergence criterion met
 Total energy in the final basis set =     -986.6574367342
   10    -986.6574303504      5.67e-09  Convergence criterion met
 Total energy in the final basis set =     -986.6574303504
   10    -986.6574267603      5.68e-09  Convergence criterion met
 Total energy in the final basis set =     -986.6574267603
   10    -986.6574248732      5.69e-09  Convergence criterion met
 Total energy in the final basis set =     -986.6574248732
   10    -986.6574232205      5.68e-09  Convergence criterion met
 Total energy in the final basis set =     -986.6574232205

             Standard Nuclear Orientation (Angstroms)
    I     Atom           X                Y                Z
 ----------------------------------------------------------------
    1      C      -0.7395764014     4.9255585320     2.1111145497
    2      C      -0.6078685574     3.5713541839     1.4070403220
    3      N       0.3595977478     2.6991222012     2.0320682962
    4      H      -1.0137966720     4.8061216457     3.1607444043
    5      H       0.1845697042     5.5010478338     2.0566819023
    6      H      -1.5678847713     3.0556917024     1.4085050306
    7      H      -1.5304462992     5.4882471446     1.6147202493
    8      C       0.1034221947     2.1155617736     3.3397948685
    9      H       0.5861195826     2.7761150183     4.0726824063
   10      H       0.6467825933     1.1693606422     3.3562959151
   11      H      -0.3151860331     3.6968949784     0.3653947627
   12      C      -1.3559199750     1.8936252354     3.6855498498
   13      H      -1.8451585968     1.2644067045     2.9425708963
   14      H      -1.4008351912     1.3852392605     4.6498603811
   15      H      -1.9159314453     2.8255339782     3.7727163659
   16      C       1.7038914544     2.6266566827     1.5310065155
   17      H       2.2962384820     2.0417775195     2.2334354870
   18      H       1.6565763066     2.0404028091     0.6014537079
   19      C       2.3664594201     3.9719466070     1.2483444422
   20      H       3.3759426247     3.7741548558     0.8874873024
   21      H       1.8396601577     4.5365188136     0.4778370597
   22      H       2.4356404667     4.5793002808     2.1532321737
   23      C       3.2835884841    -0.3564933798    -0.0533242930
   24      C       4.1286622103    -0.2763947581    -1.1820546195
   25      H       3.7035028233    -0.0663614561    -2.1568884700
   26      C       5.4927805932    -0.4961704936    -1.0854688762
   27      H       6.1036396031    -0.4362900230    -1.9805006656
   28      C       6.0825274441    -0.8088517971     0.1380823125
   29      H       7.1498529447    -0.9829619891     0.2102913451
   30      C       5.2705312506    -0.8961731224     1.2650111373
   31      H       5.7075655075    -1.1337854387     2.2297515134
   32      C       3.9048886116    -0.6725059603     1.1751948818
   33      H       3.3083072511    -0.7220153133     2.0793171137
   34      C       1.8540072041    -0.0961940345    -0.1326788004
   35      C       1.2721412560     0.6755129086    -1.1845860588
   36      H       1.8944147033     1.0100615065    -2.0080665097
   37      C      -0.0425327685     1.0619663221    -1.1701572658
   38      H      -0.4098323541     1.6413557974    -2.0092596647
   39      C      -0.9412678884     0.6831850992    -0.1186738571
   40      C      -0.3787349991    -0.1942655676     0.8652539001
   41      H      -1.0097488855    -0.6022206224     1.6470971216
   42      C       0.9449742894    -0.5531728143     0.8618935361
   43      H       1.2943597926    -1.2311043887     1.6339955780
   44      C      -2.3027708873     1.1485486490    -0.0610340752
   45      C      -3.2615571353     0.6002484518     0.8345812226
   46      H      -3.0027886090    -0.2626188040     1.4375018280
   47      C      -4.5413751923     1.1139408533     0.9427257384
   48      H      -5.2366040879     0.6536403853     1.6380822942
   49      C      -4.9539381500     2.1972621025     0.1650185285
   50      H      -5.9576379635     2.5959815482     0.2520692856
   51      C      -4.0434966932     2.7400159608    -0.7411621993
   52      H      -4.3391410824     3.5757433799    -1.3681483647
   53      C      -2.7598939490     2.2353841739    -0.8579653084
   54      H      -2.0862181161     2.7070954214    -1.5635311967
 ----------------------------------------------------------------

   10    -986.6574194261      5.68e-09  Convergence criterion met
 Total energy in the final basis set =     -986.6574194261

             TDDFT Excitation Energies
 ---------------------------------------------------

 Excited state   1: excitation energy (eV) =    2.8793
 Total energy for state  1:                  -986.55160812 au
    Multiplicity: Singlet
    Trans. Mom.: -1.1854 X   0.3687 Y  -0.0382 Z
    Strength   :     0.1088110141
    X: D(   90) --> V(    1) amplitude =  0.9852

 Excited state   2: excitation energy (eV) =    3.9598
 Total energy for state  2:                  -986.51190110 au
    Multiplicity: Singlet
    Trans. Mom.: -3.1948 X   0.8597 Y   0.0494 Z
    Strength   :     1.0620961098
    X: D(   89) --> V(    1) amplitude =  0.9619

 Excited state   3: excitation energy (eV) =    4.0508
 Total energy for state  3:                  -986.50855703 au
    Multiplicity: Singlet
    Trans. Mom.:  0.5301 X  -0.2320 Y  -0.1144 Z
    Strength   :     0.0345245266
    X: D(   90) --> V(    2) amplitude =  0.8654
    X: D(   90) --> V(    5) amplitude = -0.3996

 Excited state   4: excitation energy (eV) =    4.7802
 Total energy for state  4:                  -986.48175071 au
    Multiplicity: Singlet
    Trans. Mom.: -0.1067 X   0.0303 Y   0.1603 Z
    Strength   :     0.0044509142
    X: D(   85) --> V(    1) amplitude = -0.3046
    X: D(   87) --> V(    1) amplitude =  0.5037
    X: D(   89) --> V(    2) amplitude =  0.6505

 Excited state   5: excitation energy (eV) =    4.8726
 Total energy for state  5:                  -986.47835596 au
    Multiplicity: Singlet
    Trans. Mom.:  0.2170 X  -0.0133 Y   0.1127 Z
    Strength   :     0.0071611567
    X: D(   85) --> V(    1) amplitude = -0.3358
    X: D(   86) --> V(    1) amplitude =  0.3351
    X: D(   89) --> V(    4) amplitude =  0.3043
    X: D(   90) --> V(    4) amplitude =  0.5424
    X: D(   90) --> V(    5) amplitude = -0.3881

 Excited state   6: excitation energy (eV) =    4.8988
 Total energy for state  6:                  -986.47739066 au
    Multiplicity: Singlet
    Trans. Mom.: -0.0277 X   0.0594 Y   0.0764 Z
    Strength   :     0.0012169033
    X: D(   90) --> V(    3) amplitude =  0.9134

 Excited state   7: excitation energy (eV) =    5.0255
 Total energy for state  7:                  -986.47273652 au
    Multiplicity: Singlet
    Trans. Mom.: -0.0227 X   0.0609 Y  -0.1622 Z
    Strength   :     0.0037569148
    X: D(   85) --> V(    1) amplitude =  0.4635
    X: D(   86) --> V(    1) amplitude =  0.3525
    X: D(   86) --> V(    3) amplitude =  0.2912
    X: D(   88) --> V(    4) amplitude =  0.2723
    X: D(   89) --> V(    4) amplitude =  0.3194
    X: D(   89) --> V(    5) amplitude =  0.2909
    X: D(   90) --> V(    4) amplitude =  0.2209
    X: D(   90) --> V(    5) amplitude =  0.3072

 Excited state   8: excitation energy (eV) =    5.2413
 Total energy for state  8:                  -986.46480479 au
    Multiplicity: Singlet
    Trans. Mom.:  0.3127 X   0.2526 Y  -0.1962 Z
    Strength   :     0.0256950022
    X: D(   85) --> V(    1) amplitude =  0.3301
    X: D(   86) --> V(    1) amplitude = -0.3655
    X: D(   89) --> V(    4) amplitude = -0.2371
    X: D(   90) --> V(    4) amplitude =  0.5592
    X: D(   90) --> V(    5) amplitude = -0.4086

 Excited state   9: excitation energy (eV) =    5.3678
 Total energy for state  9:                  -986.46015549 au
    Multiplicity: Singlet
    Trans. Mom.: -0.2425 X  -0.1395 Y  -0.0505 Z
    Strength   :     0.0106313851
    X: D(   88) --> V(    1) amplitude =  0.7268
    X: D(   89) --> V(    3) amplitude =  0.4844
    X: D(   90) --> V(    3) amplitude = -0.2749

 Excited state  10: excitation energy (eV) =    5.4720
 Total energy for state 10:                  -986.45632843 au
    Multiplicity: Singlet
    Trans. Mom.: -0.0780 X  -0.0896 Y   0.1480 Z
    Strength   :     0.0048284565
    X: D(   87) --> V(    1) amplitude = -0.3048
    X: D(   90) --> V(    2) amplitude =  0.2389
    X: D(   90) --> V(    4) amplitude =  0.3627
    X: D(   90) --> V(    5) amplitude =  0.4300
    X: D(   90) --> V(    6) amplitude =  0.3792
    X: D(   90) --> V(    7) amplitude = -0.3125
    X: D(   90) --> V(   10) amplitude = -0.3106

 ---------------------------------------------------

 Final energy is   -986.657419426105
 **  OPTIMIZATION CONVERGED  **

                    Orbital Energies (a.u.)
 --------------------------------------------------------------

 Alpha MOs
 -- Occupied --
-14.3788 -10.3072 -10.3064 -10.3055 -10.3050 -10.2919 -10.2916 -10.2916
-10.2911 -10.2906 -10.2905 -10.2904 -10.2902 -10.2902 -10.2898 -10.2897
-10.2897 -10.2894 -10.2894 -10.2890 -10.2848 -10.2792 -10.2616 -10.2539
-10.2518  -1.0013  -0.9791  -0.9676  -0.9486  -0.8956  -0.8596  -0.8574
 -0.8529  -0.8511  -0.8457  -0.8424  -0.8087  -0.7956  -0.7416  -0.7239
 -0.7234  -0.7025  -0.6989  -0.6968  -0.6728  -0.6700  -0.6335  -0.6318
 -0.6140  -0.5764  -0.5745  -0.5715  -0.5665  -0.5483  -0.5396  -0.5375
 -0.5350  -0.5211  -0.5190  -0.5123  -0.5100  -0.5088  -0.5038  -0.4980
 -0.4875  -0.4863  -0.4793  -0.4695  -0.4661  -0.4655  -0.4607  -0.4483
 -0.4428  -0.4392  -0.4368  -0.4311  -0.4306  -0.4223  -0.4185  -0.4144
 -0.4052  -0.4003  -0.3982  -0.3763  -0.3399  -0.3362  -0.3340  -0.3323
 -0.2791  -0.2351

          Ground-State Mulliken Net Atomic Charges

     Atom                 Charge (a.u.)
  ----------------------------------------
      1 C                    -0.295339
      2 C                    -0.158093
      3 N                    -0.409782
      4 H                     0.108565
      5 H                     0.112029
      6 H                     0.148727
      7 H                     0.101606
      8 C                    -0.087603
      9 H                     0.099189
     10 H                     0.109338
     11 H                     0.121007
     12 C                    -0.350451
     13 H                     0.108412
     14 H                     0.121571
     15 H                     0.121731
     16 C                    -0.097196
     17 H                     0.109563
     18 H                     0.148356
     19 C                    -0.340656
     20 H                     0.112219
     21 H                     0.115132
     22 H                     0.113296
     23 C                    -0.012412
     24 C                    -0.098648
     25 H                     0.122986
     26 C                    -0.121858
     27 H                     0.121992
     28 C                    -0.112909
     29 H                     0.123868
     30 C                    -0.124739
     31 H                     0.122027
     32 C                    -0.103229
     33 H                     0.123569
     34 C                    -0.093545
     35 C                    -0.128744
     36 H                     0.114512
     37 C                    -0.098148
     38 H                     0.120410
     39 C                    -0.018238
     40 C                    -0.078764
     41 H                     0.119895
     42 C                    -0.099074
     43 H                     0.119276
     44 C                    -0.051840
     45 C                    -0.125503
     46 H                     0.131681
     47 C                    -0.110378
     48 H                     0.121332
     49 C                    -0.112280
     50 H                     0.124005
     51 C                    -0.113292
     52 H                     0.121246
     53 C                    -0.113903
     54 H                     0.119084
  ----------------------------------------
  Sum of atomic charges =     0.000000

                    Cartesian Multipole Moments
 -----------------------------------------------------------------
    Charge (ESU x 10^10)
                 0.0000
    Dipole Moment (Debye)
         X      -0.1007      Y      -0.2131      Z      -0.0205
       Tot       0.2366
    Quadrupole Moments (Debye-Ang)
        XX    -136.4265     XY      -5.7030     YY    -157.2303
        XZ      -3.3246     YZ     -11.0278     ZZ    -143.9535

 Total job time:  105036.36s(wall), 1303070.86s(cpu)
        *  Thank you very much for using Q-Chem.  Have a nice day.  *
