 Q-Chem 5.4, Q-Chem, Inc., Pleasanton, CA (2021)
 Q-Chem 5.4.2 for Intel X86 EM64T Linux

User input:
--------------------------------------------------------------
$molecule
0 1
C     -0.7395764014      4.9255585320      2.1111145497
C     -0.6078685574      3.5713541839      1.4070403220
N      0.3595977478      2.6991222012      2.0320682962
H     -1.0137966720      4.8061216457      3.1607444043
H      0.1845697042      5.5010478338      2.0566819023
H     -1.5678847713      3.0556917024      1.4085050306
H     -1.5304462992      5.4882471446      1.6147202493
C      0.1034221947      2.1155617736      3.3397948685
H      0.5861195826      2.7761150183      4.0726824063
H      0.6467825933      1.1693606422      3.3562959151
H     -0.3151860331      3.6968949784      0.3653947627
C     -1.3559199750      1.8936252354      3.6855498498
H     -1.8451585968      1.2644067045      2.9425708963
H     -1.4008351912      1.3852392605      4.6498603811
H     -1.9159314453      2.8255339782      3.7727163659
C      1.7038914544      2.6266566827      1.5310065155
H      2.2962384820      2.0417775195      2.2334354870
H      1.6565763066      2.0404028091      0.6014537079
C      2.3664594201      3.9719466070      1.2483444422
H      3.3759426247      3.7741548558      0.8874873024
H      1.8396601577      4.5365188136      0.4778370597
H      2.4356404667      4.5793002808      2.1532321737
C      3.2835884841     -0.3564933798     -0.0533242930
C      4.1286622103     -0.2763947581     -1.1820546195
H      3.7035028233     -0.0663614561     -2.1568884700
C      5.4927805932     -0.4961704936     -1.0854688762
H      6.1036396031     -0.4362900230     -1.9805006656
C      6.0825274441     -0.8088517971      0.1380823125
H      7.1498529447     -0.9829619891      0.2102913451
C      5.2705312506     -0.8961731224      1.2650111373
H      5.7075655075     -1.1337854387      2.2297515134
C      3.9048886116     -0.6725059603      1.1751948818
H      3.3083072511     -0.7220153133      2.0793171137
C      1.8540072041     -0.0961940345     -0.1326788004
C      1.2721412560      0.6755129086     -1.1845860588
H      1.8944147033      1.0100615065     -2.0080665097
C     -0.0425327685      1.0619663221     -1.1701572658
H     -0.4098323541      1.6413557974     -2.0092596647
C     -0.9412678884      0.6831850992     -0.1186738571
C     -0.3787349991     -0.1942655676      0.8652539001
H     -1.0097488855     -0.6022206224      1.6470971216
C      0.9449742894     -0.5531728143      0.8618935361
H      1.2943597926     -1.2311043887      1.6339955780
C     -2.3027708873      1.1485486490     -0.0610340752
C     -3.2615571353      0.6002484518      0.8345812226
H     -3.0027886090     -0.2626188040      1.4375018280
C     -4.5413751923      1.1139408533      0.9427257384
H     -5.2366040879      0.6536403853      1.6380822942
C     -4.9539381500      2.1972621025      0.1650185285
H     -5.9576379635      2.5959815482      0.2520692856
C     -4.0434966932      2.7400159608     -0.7411621993
H     -4.3391410824      3.5757433799     -1.3681483647
C     -2.7598939490      2.2353841739     -0.8579653084
H     -2.0862181161      2.7070954214     -1.5635311967
$end

$rem
basis = 6-311g**
method = wb97xd
job_type = sp
cis_n_roots = 10
cis_singlets = 1
cis_triplets = 0
rpa = 2
solvent_method = pcm
symmetry = false
symmetry_ignore = 1
cis_dynamic_mem = true
cis_relaxed_density = true
use_new_functional = true
pcm_print = 1
$end

$pcm
chargeseparation excited
statespecific 1
$end

$solvent
dielectric 2.03
opticaldielectric 2.01
$end

--------------------------------------------------------------

   14    -986.6572722217      5.57e-09  Convergence criterion met
 Total energy in the final basis set =     -986.6572722217

             TDDFT Excitation Energies
 ---------------------------------------------------

 Excited state   1: excitation energy (eV) =    2.8791
 Total energy for state  1:                  -986.55146832 au
    Multiplicity: Singlet
    Trans. Mom.: -1.1840 X   0.3682 Y  -0.0382 Z
    Strength   :     0.1085486771
    X: D(   90) --> V(    1) amplitude =  0.9852

 Excited state   2: excitation energy (eV) =    3.9602
 Total energy for state  2:                  -986.51173634 au
    Multiplicity: Singlet
    Trans. Mom.: -3.1928 X   0.8592 Y   0.0491 Z
    Strength   :     1.0608976791
    X: D(   89) --> V(    1) amplitude =  0.9616

 Excited state   3: excitation energy (eV) =    4.0501
 Total energy for state  3:                  -986.50843282 au
    Multiplicity: Singlet
    Trans. Mom.:  0.5359 X  -0.2336 Y  -0.1146 Z
    Strength   :     0.0352116358
    X: D(   90) --> V(    2) amplitude =  0.8653
    X: D(   90) --> V(    5) amplitude = -0.3993

 Excited state   4: excitation energy (eV) =    4.7801
 Total energy for state  4:                  -986.48160812 au
    Multiplicity: Singlet
    Trans. Mom.: -0.1068 X   0.0306 Y   0.1599 Z
    Strength   :     0.0044392318
    X: D(   85) --> V(    1) amplitude = -0.3049
    X: D(   87) --> V(    1) amplitude =  0.5033
    X: D(   89) --> V(    2) amplitude =  0.6510

 Excited state   5: excitation energy (eV) =    4.8725
 Total energy for state  5:                  -986.47821269 au
    Multiplicity: Singlet
    Trans. Mom.:  0.2171 X  -0.0131 Y   0.1125 Z
    Strength   :     0.0071578557
    X: D(   85) --> V(    1) amplitude = -0.3354
    X: D(   86) --> V(    1) amplitude =  0.3350
    X: D(   89) --> V(    4) amplitude =  0.3042
    X: D(   90) --> V(    4) amplitude =  0.5427
    X: D(   90) --> V(    5) amplitude = -0.3882

 Excited state   6: excitation energy (eV) =    4.8988
 Total energy for state  6:                  -986.47724435 au
    Multiplicity: Singlet
    Trans. Mom.: -0.0274 X   0.0597 Y   0.0768 Z
    Strength   :     0.0012253043
    X: D(   90) --> V(    3) amplitude =  0.9137

 Excited state   7: excitation energy (eV) =    5.0255
 Total energy for state  7:                  -986.47258696 au
    Multiplicity: Singlet
    Trans. Mom.: -0.0228 X   0.0605 Y  -0.1615 Z
    Strength   :     0.0037278833
    X: D(   85) --> V(    1) amplitude =  0.4635
    X: D(   86) --> V(    1) amplitude =  0.3522
    X: D(   86) --> V(    3) amplitude =  0.2912
    X: D(   88) --> V(    4) amplitude =  0.2724
    X: D(   89) --> V(    4) amplitude =  0.3195
    X: D(   89) --> V(    5) amplitude =  0.2910
    X: D(   90) --> V(    4) amplitude =  0.2210
    X: D(   90) --> V(    5) amplitude =  0.3075

 Excited state   8: excitation energy (eV) =    5.2412
 Total energy for state  8:                  -986.46466297 au
    Multiplicity: Singlet
    Trans. Mom.:  0.3126 X   0.2520 Y  -0.1956 Z
    Strength   :     0.0256191022
    X: D(   85) --> V(    1) amplitude =  0.3298
    X: D(   86) --> V(    1) amplitude = -0.3654
    X: D(   89) --> V(    4) amplitude = -0.2375
    X: D(   90) --> V(    4) amplitude =  0.5589
    X: D(   90) --> V(    5) amplitude = -0.4084

 Excited state   9: excitation energy (eV) =    5.3683
 Total energy for state  9:                  -986.45999128 au
    Multiplicity: Singlet
    Trans. Mom.: -0.2423 X  -0.1389 Y  -0.0499 Z
    Strength   :     0.0105856496
    X: D(   88) --> V(    1) amplitude =  0.7269
    X: D(   89) --> V(    3) amplitude =  0.4844
    X: D(   90) --> V(    3) amplitude = -0.2738

 Excited state  10: excitation energy (eV) =    5.4717
 Total energy for state 10:                  -986.45619133 au
    Multiplicity: Singlet
    Trans. Mom.: -0.0777 X  -0.0897 Y   0.1459 Z
    Strength   :     0.0047397889
    X: D(   87) --> V(    1) amplitude = -0.3023
    X: D(   90) --> V(    2) amplitude =  0.2384
    X: D(   90) --> V(    4) amplitude =  0.3616
    X: D(   90) --> V(    5) amplitude =  0.4295
    X: D(   90) --> V(    6) amplitude =  0.3836
    X: D(   90) --> V(    7) amplitude = -0.3107
    X: D(   90) --> V(   10) amplitude = -0.3124

 ---------------------------------------------------

 Total job time:  784.02s(wall), 15061.63s(cpu)
        *  Thank you very much for using Q-Chem.  Have a nice day.  *
 Q-Chem 5.4, Q-Chem, Inc., Pleasanton, CA (2021)
 Q-Chem 5.4.2 for Intel X86 EM64T Linux

User input:
--------------------------------------------------------------

$molecule
READ
$end

$rem
BASIS  =  6-311G**
METHOD = wb97xd
SCF_GUESS = READ
SCF_CONVERGENCE = 8
SOLVENT_METHOD  =  PCM
SYMMETRY  =  FALSE
SYMMETRY_IGNORE  =  1
SOLVENT_METHOD =  PCM
PCM_PRINT =  1
$end

$pcm
StateSpecific      Marcus
$end

$solvent
DIELECTRIC  2.03
OPTICALDIELECTRIC  2.01
$end
--------------------------------------------------------------

             Standard Nuclear Orientation (Angstroms)
    I     Atom           X                Y                Z
 ----------------------------------------------------------------
    1      C      -0.7395764014     4.9255585320     2.1111145497
    2      C      -0.6078685574     3.5713541839     1.4070403220
    3      N       0.3595977478     2.6991222012     2.0320682962
    4      H      -1.0137966720     4.8061216457     3.1607444043
    5      H       0.1845697042     5.5010478338     2.0566819023
    6      H      -1.5678847713     3.0556917024     1.4085050306
    7      H      -1.5304462992     5.4882471446     1.6147202493
    8      C       0.1034221947     2.1155617736     3.3397948685
    9      H       0.5861195826     2.7761150183     4.0726824063
   10      H       0.6467825933     1.1693606422     3.3562959151
   11      H      -0.3151860331     3.6968949784     0.3653947627
   12      C      -1.3559199750     1.8936252354     3.6855498498
   13      H      -1.8451585968     1.2644067045     2.9425708963
   14      H      -1.4008351912     1.3852392605     4.6498603811
   15      H      -1.9159314453     2.8255339782     3.7727163659
   16      C       1.7038914544     2.6266566827     1.5310065155
   17      H       2.2962384820     2.0417775195     2.2334354870
   18      H       1.6565763066     2.0404028091     0.6014537079
   19      C       2.3664594201     3.9719466070     1.2483444422
   20      H       3.3759426247     3.7741548558     0.8874873024
   21      H       1.8396601577     4.5365188136     0.4778370597
   22      H       2.4356404667     4.5793002808     2.1532321737
   23      C       3.2835884841    -0.3564933798    -0.0533242930
   24      C       4.1286622103    -0.2763947581    -1.1820546195
   25      H       3.7035028233    -0.0663614561    -2.1568884700
   26      C       5.4927805932    -0.4961704936    -1.0854688762
   27      H       6.1036396031    -0.4362900230    -1.9805006656
   28      C       6.0825274441    -0.8088517971     0.1380823125
   29      H       7.1498529447    -0.9829619891     0.2102913451
   30      C       5.2705312506    -0.8961731224     1.2650111373
   31      H       5.7075655075    -1.1337854387     2.2297515134
   32      C       3.9048886116    -0.6725059603     1.1751948818
   33      H       3.3083072511    -0.7220153133     2.0793171137
   34      C       1.8540072041    -0.0961940345    -0.1326788004
   35      C       1.2721412560     0.6755129086    -1.1845860588
   36      H       1.8944147033     1.0100615065    -2.0080665097
   37      C      -0.0425327685     1.0619663221    -1.1701572658
   38      H      -0.4098323541     1.6413557974    -2.0092596647
   39      C      -0.9412678884     0.6831850992    -0.1186738571
   40      C      -0.3787349991    -0.1942655676     0.8652539001
   41      H      -1.0097488855    -0.6022206224     1.6470971216
   42      C       0.9449742894    -0.5531728143     0.8618935361
   43      H       1.2943597926    -1.2311043887     1.6339955780
   44      C      -2.3027708873     1.1485486490    -0.0610340752
   45      C      -3.2615571353     0.6002484518     0.8345812226
   46      H      -3.0027886090    -0.2626188040     1.4375018280
   47      C      -4.5413751923     1.1139408533     0.9427257384
   48      H      -5.2366040879     0.6536403853     1.6380822942
   49      C      -4.9539381500     2.1972621025     0.1650185285
   50      H      -5.9576379635     2.5959815482     0.2520692856
   51      C      -4.0434966932     2.7400159608    -0.7411621993
   52      H      -4.3391410824     3.5757433799    -1.3681483647
   53      C      -2.7598939490     2.2353841739    -0.8579653084
   54      H      -2.0862181161     2.7070954214    -1.5635311967
 ----------------------------------------------------------------

   10    -986.6571863556      5.62e-09  Convergence criterion met
 Total energy in the final basis set =     -986.6571863556

                    Orbital Energies (a.u.)
 --------------------------------------------------------------

 Alpha MOs
 -- Occupied --
-14.3786 -10.3072 -10.3064 -10.3055 -10.3050 -10.2919 -10.2916 -10.2916
-10.2911 -10.2906 -10.2906 -10.2904 -10.2902 -10.2900 -10.2898 -10.2898
-10.2897 -10.2894 -10.2894 -10.2890 -10.2846 -10.2790 -10.2614 -10.2537
-10.2516  -1.0010  -0.9791  -0.9676  -0.9486  -0.8956  -0.8596  -0.8573
 -0.8527  -0.8511  -0.8457  -0.8422  -0.8086  -0.7954  -0.7416  -0.7237
 -0.7233  -0.7024  -0.6987  -0.6968  -0.6728  -0.6700  -0.6335  -0.6316
 -0.6140  -0.5764  -0.5745  -0.5713  -0.5665  -0.5481  -0.5396  -0.5375
 -0.5348  -0.5211  -0.5190  -0.5123  -0.5100  -0.5088  -0.5036  -0.4980
 -0.4873  -0.4862  -0.4792  -0.4694  -0.4660  -0.4655  -0.4605  -0.4482
 -0.4428  -0.4391  -0.4368  -0.4311  -0.4304  -0.4223  -0.4183  -0.4142
 -0.4050  -0.4003  -0.3981  -0.3762  -0.3399  -0.3362  -0.3340  -0.3323
 -0.2790  -0.2349

          Ground-State Mulliken Net Atomic Charges

     Atom                 Charge (a.u.)
  ----------------------------------------
      1 C                    -0.294783
      2 C                    -0.158265
      3 N                    -0.409664
      4 H                     0.108447
      5 H                     0.111950
      6 H                     0.148809
      7 H                     0.101449
      8 C                    -0.087448
      9 H                     0.099339
     10 H                     0.109200
     11 H                     0.120863
     12 C                    -0.350093
     13 H                     0.108128
     14 H                     0.121469
     15 H                     0.121616
     16 C                    -0.096883
     17 H                     0.109440
     18 H                     0.148355
     19 C                    -0.340417
     20 H                     0.112032
     21 H                     0.115009
     22 H                     0.113326
     23 C                    -0.012245
     24 C                    -0.098522
     25 H                     0.122712
     26 C                    -0.121614
     27 H                     0.121753
     28 C                    -0.112736
     29 H                     0.123640
     30 C                    -0.124532
     31 H                     0.121793
     32 C                    -0.102955
     33 H                     0.123351
     34 C                    -0.093475
     35 C                    -0.128603
     36 H                     0.114240
     37 C                    -0.097885
     38 H                     0.120108
     39 C                    -0.018148
     40 C                    -0.078655
     41 H                     0.119651
     42 C                    -0.098907
     43 H                     0.119026
     44 C                    -0.051693
     45 C                    -0.125366
     46 H                     0.131467
     47 C                    -0.110125
     48 H                     0.121096
     49 C                    -0.112086
     50 H                     0.123759
     51 C                    -0.113074
     52 H                     0.121008
     53 C                    -0.113686
     54 H                     0.118824
  ----------------------------------------
  Sum of atomic charges =     0.000000

                    Cartesian Multipole Moments
 -----------------------------------------------------------------
    Charge (ESU x 10^10)
                 0.0000
    Dipole Moment (Debye)
         X      -0.0982      Y      -0.2056      Z      -0.0127
       Tot       0.2282
    Quadrupole Moments (Debye-Ang)
        XX    -136.4783     XY      -5.6849     YY    -157.2184
        XZ      -3.3092     YZ     -10.9915     ZZ    -143.9622

 Total job time:  95.04s(wall), 1517.82s(cpu)
        *  Thank you very much for using Q-Chem.  Have a nice day.  *
