 Q-Chem 5.4, Q-Chem, Inc., Pleasanton, CA (2021)
 Q-Chem 5.4.2 for Intel X86 EM64T Linux

User input:
--------------------------------------------------------------
$molecule
0 1
C      2.6302422690      4.5765983056      1.0360202725
C      3.1071480250      3.1430577752      0.7673265751
N      4.5334035432      2.9890617388      0.8622862533
H      2.9892113727      4.9409467179      2.0008032062
H      2.9537872810      5.2645393087      0.2538926867
H      2.6317974116      2.4553749962      1.4591842251
H      1.5403493137      4.5648944767      1.0505166773
C      5.2024568383      2.5139461408      2.0495656330
H      5.9559415752      3.2618408306      2.3176602297
H      5.7699332778      1.6195021251      1.7424613648
H      2.8117806646      2.8382123665     -0.2394602148
C      4.3140132009      2.2004401360      3.2356136063
H      3.6270033264      1.3831386944      3.0161055749
H      4.9541899818      1.8820196823      4.0595389144
H      3.7454689823      3.0734971016      3.5645536214
C      5.3780750485      3.5485901120     -0.1828762817
H      6.1946384201      2.8444806550     -0.3396512830
H      4.7853605209      3.5842421439     -1.0958940581
C      5.9378655668      4.9325889923      0.1572387181
H      6.5264956013      5.2796105516     -0.6928263085
H      5.1470152688      5.6583038434      0.3458344090
H      6.5946675674      4.8983471774      1.0278931962
C      3.7554601108     -0.0640961787      0.2327306623
C      4.7465138465      0.3097951638     -0.7400803491
H      4.4378777251      0.7572281445     -1.6772901296
C      6.0950747576      0.1288932857     -0.5115775444
H      6.8049182994      0.4347275260     -1.2752815690
C      6.5665241779     -0.4245017893      0.6853467350
H      7.6260152386     -0.5747059256      0.8540031922
C      5.6109672677     -0.8890618448      1.6173911206
H      5.9466869661     -1.3917553687      2.5195352877
C      4.2655963308     -0.7208654212      1.4044958372
H      3.5737852142     -1.1178254042      2.1382212210
C      2.3716345813      0.2363947452      0.0620982677
C      1.8415616448      0.7548619152     -1.1638243261
H      2.4493149872      0.7468143044     -2.0611856804
C      0.5532214146      1.2313896170     -1.2596539304
H      0.2057647987      1.5896849016     -2.2241293555
C     -0.3349722567      1.2280006827     -0.1664675698
C      0.1499220726      0.6455221714      1.0257755442
H     -0.4927584665      0.6076631432      1.9000884446
C      1.4316045237      0.1620744934      1.1391261081
H      1.7424332300     -0.2392197523      2.0968717538
C     -1.6893490338      1.7893253875     -0.2669867802
C     -2.7487499627      1.3077685764      0.5206571177
H     -2.5764839422      0.4787272700      1.1979814690
C     -4.0226689509      1.8498788211      0.4287460108
H     -4.8185438745      1.4500349884      1.0482111883
C     -4.2888007710      2.8864604469     -0.4607092354
H     -5.2850833021      3.3073930200     -0.5344232119
C     -3.2549931828      3.3749305308     -1.2530048250
H     -3.4421966267      4.1863919163     -1.9485077327
C     -1.9779952056      2.8409291645     -1.1535780011
H     -1.1826246694      3.2609085964     -1.7594627376
$end

$rem
basis = 6-311g**
method = wb97xd
job_type = sp
cis_n_roots = 10
cis_singlets = 1
cis_triplets = 0
rpa = 2
solvent_method = pcm
symmetry = false
symmetry_ignore = 1
cis_dynamic_mem = true
cis_relaxed_density = true
use_new_functional = true
pcm_print = 1
$end

$pcm
chargeseparation excited
statespecific 1
$end

$solvent
dielectric 2.03
opticaldielectric 2.01
$end

--------------------------------------------------------------

   14    -986.6572256747      5.24e-09  Convergence criterion met
 Total energy in the final basis set =     -986.6572256747

             TDDFT Excitation Energies
 ---------------------------------------------------

 Excited state   1: excitation energy (eV) =    3.0145
 Total energy for state  1:                  -986.54644658 au
    Multiplicity: Singlet
    Trans. Mom.:  1.1139 X  -0.2666 Y   0.1124 Z
    Strength   :     0.0978115057
    X: D(   90) --> V(    1) amplitude =  0.9631
    X: D(   90) --> V(    3) amplitude = -0.2425

 Excited state   2: excitation energy (eV) =    3.9928
 Total energy for state  2:                  -986.51049253 au
    Multiplicity: Singlet
    Trans. Mom.: -3.1625 X   0.8484 Y  -0.3750 Z
    Strength   :     1.0625198977
    X: D(   89) --> V(    1) amplitude =  0.9679

 Excited state   3: excitation energy (eV) =    4.1608
 Total energy for state  3:                  -986.50432038 au
    Multiplicity: Singlet
    Trans. Mom.: -0.4786 X   0.2660 Y  -0.0963 Z
    Strength   :     0.0315114729
    X: D(   90) --> V(    2) amplitude =  0.8232
    X: D(   90) --> V(    4) amplitude = -0.3914
    X: D(   90) --> V(    5) amplitude = -0.2884

 Excited state   4: excitation energy (eV) =    4.6832
 Total energy for state  4:                  -986.48511995 au
    Multiplicity: Singlet
    Trans. Mom.: -0.0541 X   0.0579 Y   0.0456 Z
    Strength   :     0.0009585984
    X: D(   85) --> V(    1) amplitude = -0.4824
    X: D(   86) --> V(    1) amplitude = -0.2316
    X: D(   89) --> V(    2) amplitude =  0.5403
    X: D(   89) --> V(    5) amplitude =  0.2414
    X: D(   90) --> V(    5) amplitude = -0.4557

 Excited state   5: excitation energy (eV) =    4.9247
 Total energy for state  5:                  -986.47624675 au
    Multiplicity: Singlet
    Trans. Mom.: -0.0900 X   0.0466 Y  -0.1148 Z
    Strength   :     0.0028286519
    X: D(   87) --> V(    1) amplitude =  0.4987
    X: D(   88) --> V(    1) amplitude =  0.2614
    X: D(   89) --> V(    2) amplitude =  0.3681
    X: D(   90) --> V(    2) amplitude =  0.3879
    X: D(   90) --> V(    5) amplitude =  0.3774

 Excited state   6: excitation energy (eV) =    5.1306
 Total energy for state  6:                  -986.46868068 au
    Multiplicity: Singlet
    Trans. Mom.: -0.0007 X  -0.0538 Y   0.1226 Z
    Strength   :     0.0022533280
    X: D(   85) --> V(    1) amplitude = -0.3553
    X: D(   86) --> V(    1) amplitude =  0.4275
    X: D(   86) --> V(    3) amplitude =  0.3680
    X: D(   88) --> V(    4) amplitude =  0.3146
    X: D(   89) --> V(    4) amplitude = -0.4546

 Excited state   7: excitation energy (eV) =    5.1566
 Total energy for state  7:                  -986.46772352 au
    Multiplicity: Singlet
    Trans. Mom.:  0.0034 X  -0.2659 Y   0.2447 Z
    Strength   :     0.0164932745
    X: D(   90) --> V(    3) amplitude =  0.6350
    X: D(   90) --> V(    5) amplitude =  0.4541
    X: D(   90) --> V(    6) amplitude =  0.3098

 Excited state   8: excitation energy (eV) =    5.1899
 Total energy for state  8:                  -986.46650014 au
    Multiplicity: Singlet
    Trans. Mom.:  0.1399 X   0.1976 Y  -0.3641 Z
    Strength   :     0.0243126009
    X: D(   85) --> V(    1) amplitude =  0.4264
    X: D(   86) --> V(    1) amplitude =  0.2146
    X: D(   89) --> V(    5) amplitude = -0.2730
    X: D(   90) --> V(    3) amplitude =  0.4683
    X: D(   90) --> V(    5) amplitude = -0.4314
    X: D(   90) --> V(    6) amplitude =  0.2205

 Excited state   9: excitation energy (eV) =    5.4171
 Total energy for state  9:                  -986.45815210 au
    Multiplicity: Singlet
    Trans. Mom.:  0.4823 X  -0.3380 Y  -0.0137 Z
    Strength   :     0.0460636458
    X: D(   87) --> V(    1) amplitude = -0.3835
    X: D(   88) --> V(    1) amplitude =  0.6174
    X: D(   89) --> V(    3) amplitude = -0.5019
    X: D(   90) --> V(    3) amplitude = -0.2559
    X: D(   90) --> V(    6) amplitude = -0.2196

 Excited state  10: excitation energy (eV) =    5.5474
 Total energy for state 10:                  -986.45336264 au
    Multiplicity: Singlet
    Trans. Mom.: -0.0684 X  -0.2125 Y  -0.1408 Z
    Strength   :     0.0094676304
    X: D(   85) --> V(    1) amplitude =  0.2855
    X: D(   86) --> V(    1) amplitude =  0.2129
    X: D(   87) --> V(    1) amplitude = -0.4900
    X: D(   88) --> V(    1) amplitude = -0.3504
    X: D(   89) --> V(    2) amplitude =  0.6451

 ---------------------------------------------------

 Total job time:  723.20s(wall), 14060.02s(cpu)
        *  Thank you very much for using Q-Chem.  Have a nice day.  *
 Q-Chem 5.4, Q-Chem, Inc., Pleasanton, CA (2021)
 Q-Chem 5.4.2 for Intel X86 EM64T Linux

User input:
--------------------------------------------------------------

$molecule
READ
$end

$rem
BASIS  =  6-311G**
METHOD = wb97xd
SCF_GUESS = READ
SCF_CONVERGENCE = 8
SOLVENT_METHOD  =  PCM
SYMMETRY  =  FALSE
SYMMETRY_IGNORE  =  1
SOLVENT_METHOD =  PCM
PCM_PRINT =  1
$end

$pcm
StateSpecific      Marcus
$end

$solvent
DIELECTRIC  2.03
OPTICALDIELECTRIC  2.01
$end
--------------------------------------------------------------

             Standard Nuclear Orientation (Angstroms)
    I     Atom           X                Y                Z
 ----------------------------------------------------------------
    1      C       2.6302422690     4.5765983056     1.0360202725
    2      C       3.1071480250     3.1430577752     0.7673265751
    3      N       4.5334035432     2.9890617388     0.8622862533
    4      H       2.9892113727     4.9409467179     2.0008032062
    5      H       2.9537872810     5.2645393087     0.2538926867
    6      H       2.6317974116     2.4553749962     1.4591842251
    7      H       1.5403493137     4.5648944767     1.0505166773
    8      C       5.2024568383     2.5139461408     2.0495656330
    9      H       5.9559415752     3.2618408306     2.3176602297
   10      H       5.7699332778     1.6195021251     1.7424613648
   11      H       2.8117806646     2.8382123665    -0.2394602148
   12      C       4.3140132009     2.2004401360     3.2356136063
   13      H       3.6270033264     1.3831386944     3.0161055749
   14      H       4.9541899818     1.8820196823     4.0595389144
   15      H       3.7454689823     3.0734971016     3.5645536214
   16      C       5.3780750485     3.5485901120    -0.1828762817
   17      H       6.1946384201     2.8444806550    -0.3396512830
   18      H       4.7853605209     3.5842421439    -1.0958940581
   19      C       5.9378655668     4.9325889923     0.1572387181
   20      H       6.5264956013     5.2796105516    -0.6928263085
   21      H       5.1470152688     5.6583038434     0.3458344090
   22      H       6.5946675674     4.8983471774     1.0278931962
   23      C       3.7554601108    -0.0640961787     0.2327306623
   24      C       4.7465138465     0.3097951638    -0.7400803491
   25      H       4.4378777251     0.7572281445    -1.6772901296
   26      C       6.0950747576     0.1288932857    -0.5115775444
   27      H       6.8049182994     0.4347275260    -1.2752815690
   28      C       6.5665241779    -0.4245017893     0.6853467350
   29      H       7.6260152386    -0.5747059256     0.8540031922
   30      C       5.6109672677    -0.8890618448     1.6173911206
   31      H       5.9466869661    -1.3917553687     2.5195352877
   32      C       4.2655963308    -0.7208654212     1.4044958372
   33      H       3.5737852142    -1.1178254042     2.1382212210
   34      C       2.3716345813     0.2363947452     0.0620982677
   35      C       1.8415616448     0.7548619152    -1.1638243261
   36      H       2.4493149872     0.7468143044    -2.0611856804
   37      C       0.5532214146     1.2313896170    -1.2596539304
   38      H       0.2057647987     1.5896849016    -2.2241293555
   39      C      -0.3349722567     1.2280006827    -0.1664675698
   40      C       0.1499220726     0.6455221714     1.0257755442
   41      H      -0.4927584665     0.6076631432     1.9000884446
   42      C       1.4316045237     0.1620744934     1.1391261081
   43      H       1.7424332300    -0.2392197523     2.0968717538
   44      C      -1.6893490338     1.7893253875    -0.2669867802
   45      C      -2.7487499627     1.3077685764     0.5206571177
   46      H      -2.5764839422     0.4787272700     1.1979814690
   47      C      -4.0226689509     1.8498788211     0.4287460108
   48      H      -4.8185438745     1.4500349884     1.0482111883
   49      C      -4.2888007710     2.8864604469    -0.4607092354
   50      H      -5.2850833021     3.3073930200    -0.5344232119
   51      C      -3.2549931828     3.3749305308    -1.2530048250
   52      H      -3.4421966267     4.1863919163    -1.9485077327
   53      C      -1.9779952056     2.8409291645    -1.1535780011
   54      H      -1.1826246694     3.2609085964    -1.7594627376
 ----------------------------------------------------------------

   10    -986.6571393406      6.35e-09  Convergence criterion met
 Total energy in the final basis set =     -986.6571393406

                    Orbital Energies (a.u.)
 --------------------------------------------------------------

 Alpha MOs
 -- Occupied --
-14.3812 -10.3070 -10.3061 -10.3055 -10.3042 -10.2930 -10.2926 -10.2918
-10.2910 -10.2909 -10.2904 -10.2904 -10.2903 -10.2901 -10.2898 -10.2897
-10.2895 -10.2889 -10.2878 -10.2877 -10.2836 -10.2815 -10.2619 -10.2551
-10.2499  -1.0017  -0.9807  -0.9660  -0.9485  -0.8962  -0.8596  -0.8556
 -0.8528  -0.8495  -0.8456  -0.8444  -0.8085  -0.7945  -0.7413  -0.7241
 -0.7196  -0.7062  -0.7005  -0.6961  -0.6738  -0.6700  -0.6328  -0.6322
 -0.6131  -0.5771  -0.5731  -0.5685  -0.5663  -0.5458  -0.5427  -0.5375
 -0.5367  -0.5227  -0.5185  -0.5123  -0.5106  -0.5087  -0.5011  -0.4984
 -0.4954  -0.4821  -0.4778  -0.4705  -0.4657  -0.4597  -0.4583  -0.4484
 -0.4428  -0.4412  -0.4378  -0.4324  -0.4286  -0.4230  -0.4221  -0.4132
 -0.4071  -0.4013  -0.3959  -0.3747  -0.3382  -0.3356  -0.3335  -0.3330
 -0.2799  -0.2374

          Ground-State Mulliken Net Atomic Charges

     Atom                 Charge (a.u.)
  ----------------------------------------
      1 C                    -0.309576
      2 C                    -0.117542
      3 N                    -0.410445
      4 H                     0.107522
      5 H                     0.110467
      6 H                     0.134162
      7 H                     0.103725
      8 C                    -0.052352
      9 H                     0.091299
     10 H                     0.126372
     11 H                     0.118291
     12 C                    -0.373717
     13 H                     0.112684
     14 H                     0.122104
     15 H                     0.123306
     16 C                    -0.145691
     17 H                     0.112618
     18 H                     0.114942
     19 C                    -0.298542
     20 H                     0.105012
     21 H                     0.112737
     22 H                     0.112587
     23 C                    -0.019124
     24 C                    -0.077372
     25 H                     0.116210
     26 C                    -0.112651
     27 H                     0.124170
     28 C                    -0.146956
     29 H                     0.122202
     30 C                    -0.109076
     31 H                     0.119417
     32 C                    -0.120297
     33 H                     0.125702
     34 C                    -0.052386
     35 C                    -0.120172
     36 H                     0.122337
     37 C                    -0.102975
     38 H                     0.122164
     39 C                    -0.014703
     40 C                    -0.110751
     41 H                     0.119883
     42 C                    -0.112878
     43 H                     0.121529
     44 C                    -0.046201
     45 C                    -0.102957
     46 H                     0.123538
     47 C                    -0.121480
     48 H                     0.122394
     49 C                    -0.114781
     50 H                     0.123600
     51 C                    -0.121552
     52 H                     0.122537
     53 C                    -0.103510
     54 H                     0.124174
  ----------------------------------------
  Sum of atomic charges =     0.000000

                    Cartesian Multipole Moments
 -----------------------------------------------------------------
    Charge (ESU x 10^10)
                 0.0000
    Dipole Moment (Debye)
         X      -0.1528      Y      -0.1690      Z       0.0114
       Tot       0.2281
    Quadrupole Moments (Debye-Ang)
        XX    -137.8945     XY      -5.7018     YY    -158.6044
        XZ      -2.0291     YZ     -10.6707     ZZ    -142.6239

 Total job time:  104.98s(wall), 1547.97s(cpu)
        *  Thank you very much for using Q-Chem.  Have a nice day.  *
