 Q-Chem 5.4, Q-Chem, Inc., Pleasanton, CA (2021)
 Q-Chem 5.4.2 for Intel X86 EM64T Linux

User input:
--------------------------------------------------------------
$molecule
0 1
C      2.6312270555      4.5860938404      0.9929620262
C      3.1115578424      3.1599210812      0.6913211040
N      4.5319426774      2.9937922819      0.8456010150
H      2.9476454837      4.9110966187      1.9861268961
H      2.9947980867      5.2999718216      0.2527920001
H      2.6022235583      2.4490057282      1.3345778152
H      1.5417617905      4.5821872138      0.9578749899
C      5.1451131746      2.5182563151      2.0631031793
H      5.8808282025      3.2688680309      2.3702971988
H      5.7307561439      1.6284915650      1.7798873582
H      2.8611816734      2.8941899602     -0.3377467479
C      4.2017778667      2.1953496572      3.2032924318
H      3.5263593970      1.3796952029      2.9453643518
H      4.8019663197      1.8716744893      4.0547785788
H      3.6162678358      3.0647890818      3.5109882633
C      5.4255600954      3.5440992666     -0.1631468041
H      6.2421838392      2.8330517886     -0.2849800909
H      4.8719779445      3.5843652548     -1.1000558952
C      5.9826736212      4.9237997649      0.1985960453
H      6.6042723683      5.2663572870     -0.6295041248
H      5.1912109244      5.6556375301      0.3590673758
H      6.6075354058      4.8845445605      1.0921799119
C      3.7647078540     -0.0664209955      0.2269652169
C      4.7485558576      0.3191199670     -0.7484756426
H      4.4322412949      0.7700383820     -1.6814998955
C      6.0996287020      0.1448417680     -0.5271231929
H      6.8039301874      0.4586675127     -1.2927369588
C      6.5800827102     -0.4111838192      0.6641446172
H      7.6412306613     -0.5559425893      0.8270532656
C      5.6317658332     -0.8841493097      1.5998822144
H      5.9749826557     -1.3877560168      2.4986894291
C      4.2843875295     -0.7240710016      1.3936921528
H      3.5982239537     -1.1272425909      2.1294352614
C      2.3783128148      0.2263471258      0.0634793590
C      1.8385807061      0.7341384577     -1.1623727891
H      2.4403320540      0.7190136259     -2.0637661935
C      0.5500735045      1.2098385853     -1.2521311355
H      0.1958319424      1.5602690093     -2.2169698288
C     -0.3299577617      1.2161407637     -0.1515474401
C      0.1631963186      0.6396643919      1.0402382400
H     -0.4725292876      0.6072264827      1.9197705088
C      1.4453869230      0.1554635817      1.1469295345
H      1.7629166871     -0.2417625090      2.1043077484
C     -1.6826875700      1.7822797717     -0.2445456890
C     -2.7343576057      1.3218403251      0.5660794332
H     -2.5579991335      0.5043679739      1.2562814500
C     -4.0059931969      1.8704272263      0.4822469516
H     -4.7950951905      1.4876172647      1.1208736375
C     -4.2784262980      2.8925429653     -0.4219594243
H     -5.2729300295      3.3187014079     -0.4891624163
C     -3.2528397259      3.3595794305     -1.2374751482
H     -3.4446225393      4.1594669186     -1.9450596846
C     -1.9778859875      2.8194761832     -1.1461282566
H     -1.1893631707      3.2232223703     -1.7715882030
$end

$rem
basis = 6-311g**
cis_state_deriv = 1
job_type = optimization
method = wb97xd
geom_opt_dmax = 20
geom_opt_tol_gradient = 20
geom_opt_max_cycles = 200
max_cis_cycles = 100
cis_n_roots = 10
cis_singlets = 1
cis_triplets = 0
rpa = 2
mem_static = 2000
mem_total = 16000
solvent_method = pcm
scf_convergence = 8
symmetry = false
symmetry_ignore = 1
thresh = 14
$end

$pcm
heavypoints 590
method swig
radii bondi
solver inversion
theory cpcm
$end

$solvent
dielectric 2.03
opticaldielectric 2.01
$end
--------------------------------------------------------------

   14    -986.6579572274      5.08e-09  Convergence criterion met
 Total energy in the final basis set =     -986.6579572274
   10    -986.6579774956      5.92e-09  Convergence criterion met
 Total energy in the final basis set =     -986.6579774956
   10    -986.6579899845      5.98e-09  Convergence criterion met
 Total energy in the final basis set =     -986.6579899845
   10    -986.6579993095      6.06e-09  Convergence criterion met
 Total energy in the final basis set =     -986.6579993095
   10    -986.6580015431      6.09e-09  Convergence criterion met
 Total energy in the final basis set =     -986.6580015431
   10    -986.6580012786      6.14e-09  Convergence criterion met
 Total energy in the final basis set =     -986.6580012786
   10    -986.6579966748      6.18e-09  Convergence criterion met
 Total energy in the final basis set =     -986.6579966748
   10    -986.6579890206      6.23e-09  Convergence criterion met
   10    -986.6573660760      6.25e-09  Convergence criterion met
 Total energy in the final basis set =     -986.6573660760
   10    -986.6573552914      6.16e-09  Convergence criterion met
 Total energy in the final basis set =     -986.6573552914
   10    -986.6573500963      6.04e-09  Convergence criterion met
 Total energy in the final basis set =     -986.6573500963
   10    -986.6573544066      6.00e-09  Convergence criterion met
 Total energy in the final basis set =     -986.6573544066
   10    -986.6573602028      5.95e-09  Convergence criterion met
 Total energy in the final basis set =     -986.6573602028
   10    -986.6573651698      6.09e-09  Convergence criterion met
 Total energy in the final basis set =     -986.6573651698

             Standard Nuclear Orientation (Angstroms)
    I     Atom           X                Y                Z
 ----------------------------------------------------------------
    1      C       2.6302422690     4.5765983056     1.0360202725
    2      C       3.1071480250     3.1430577752     0.7673265751
    3      N       4.5334035432     2.9890617388     0.8622862533
    4      H       2.9892113727     4.9409467179     2.0008032062
    5      H       2.9537872810     5.2645393087     0.2538926867
    6      H       2.6317974116     2.4553749962     1.4591842251
    7      H       1.5403493137     4.5648944767     1.0505166773
    8      C       5.2024568383     2.5139461408     2.0495656330
    9      H       5.9559415752     3.2618408306     2.3176602297
   10      H       5.7699332778     1.6195021251     1.7424613648
   11      H       2.8117806646     2.8382123665    -0.2394602148
   12      C       4.3140132009     2.2004401360     3.2356136063
   13      H       3.6270033264     1.3831386944     3.0161055749
   14      H       4.9541899818     1.8820196823     4.0595389144
   15      H       3.7454689823     3.0734971016     3.5645536214
   16      C       5.3780750485     3.5485901120    -0.1828762817
   17      H       6.1946384201     2.8444806550    -0.3396512830
   18      H       4.7853605209     3.5842421439    -1.0958940581
   19      C       5.9378655668     4.9325889923     0.1572387181
   20      H       6.5264956013     5.2796105516    -0.6928263085
   21      H       5.1470152688     5.6583038434     0.3458344090
   22      H       6.5946675674     4.8983471774     1.0278931962
   23      C       3.7554601108    -0.0640961787     0.2327306623
   24      C       4.7465138465     0.3097951638    -0.7400803491
   25      H       4.4378777251     0.7572281445    -1.6772901296
   26      C       6.0950747576     0.1288932857    -0.5115775444
   27      H       6.8049182994     0.4347275260    -1.2752815690
   28      C       6.5665241779    -0.4245017893     0.6853467350
   29      H       7.6260152386    -0.5747059256     0.8540031922
   30      C       5.6109672677    -0.8890618448     1.6173911206
   31      H       5.9466869661    -1.3917553687     2.5195352877
   32      C       4.2655963308    -0.7208654212     1.4044958372
   33      H       3.5737852142    -1.1178254042     2.1382212210
   34      C       2.3716345813     0.2363947452     0.0620982677
   35      C       1.8415616448     0.7548619152    -1.1638243261
   36      H       2.4493149872     0.7468143044    -2.0611856804
   37      C       0.5532214146     1.2313896170    -1.2596539304
   38      H       0.2057647987     1.5896849016    -2.2241293555
   39      C      -0.3349722567     1.2280006827    -0.1664675698
   40      C       0.1499220726     0.6455221714     1.0257755442
   41      H      -0.4927584665     0.6076631432     1.9000884446
   42      C       1.4316045237     0.1620744934     1.1391261081
   43      H       1.7424332300    -0.2392197523     2.0968717538
   44      C      -1.6893490338     1.7893253875    -0.2669867802
   45      C      -2.7487499627     1.3077685764     0.5206571177
   46      H      -2.5764839422     0.4787272700     1.1979814690
   47      C      -4.0226689509     1.8498788211     0.4287460108
   48      H      -4.8185438745     1.4500349884     1.0482111883
   49      C      -4.2888007710     2.8864604469    -0.4607092354
   50      H      -5.2850833021     3.3073930200    -0.5344232119
   51      C      -3.2549931828     3.3749305308    -1.2530048250
   52      H      -3.4421966267     4.1863919163    -1.9485077327
   53      C      -1.9779952056     2.8409291645    -1.1535780011
   54      H      -1.1826246694     3.2609085964    -1.7594627376
 ----------------------------------------------------------------

   10    -986.6573642000      6.10e-09  Convergence criterion met
 Total energy in the final basis set =     -986.6573642000

             TDDFT Excitation Energies
 ---------------------------------------------------

 Excited state   1: excitation energy (eV) =    3.0144
 Total energy for state  1:                  -986.54658778 au
    Multiplicity: Singlet
    Trans. Mom.:  1.1149 X  -0.2669 Y   0.1125 Z
    Strength   :     0.0979946414
    X: D(   90) --> V(    1) amplitude =  0.9631
    X: D(   90) --> V(    3) amplitude = -0.2426

 Excited state   2: excitation energy (eV) =    3.9923
 Total energy for state  2:                  -986.51064995 au
    Multiplicity: Singlet
    Trans. Mom.: -3.1637 X   0.8492 Y  -0.3752 Z
    Strength   :     1.0632530562
    X: D(   89) --> V(    1) amplitude =  0.9679

 Excited state   3: excitation energy (eV) =    4.1610
 Total energy for state  3:                  -986.50444876 au
    Multiplicity: Singlet
    Trans. Mom.: -0.4773 X   0.2658 Y  -0.0963 Z
    Strength   :     0.0313729451
    X: D(   90) --> V(    2) amplitude =  0.8229
    X: D(   90) --> V(    4) amplitude = -0.3919
    X: D(   90) --> V(    5) amplitude = -0.2885

 Excited state   4: excitation energy (eV) =    4.6833
 Total energy for state  4:                  -986.48525654 au
    Multiplicity: Singlet
    Trans. Mom.: -0.0539 X   0.0577 Y   0.0460 Z
    Strength   :     0.0009583259
    X: D(   85) --> V(    1) amplitude = -0.4817
    X: D(   86) --> V(    1) amplitude = -0.2339
    X: D(   89) --> V(    2) amplitude =  0.5401
    X: D(   89) --> V(    5) amplitude =  0.2415
    X: D(   90) --> V(    5) amplitude = -0.4556

 Excited state   5: excitation energy (eV) =    4.9247
 Total energy for state  5:                  -986.47638406 au
    Multiplicity: Singlet
    Trans. Mom.: -0.0898 X   0.0469 Y  -0.1152 Z
    Strength   :     0.0028420665
    X: D(   87) --> V(    1) amplitude =  0.4956
    X: D(   88) --> V(    1) amplitude =  0.2687
    X: D(   89) --> V(    2) amplitude =  0.3676
    X: D(   90) --> V(    2) amplitude =  0.3878
    X: D(   90) --> V(    5) amplitude =  0.3769

 Excited state   6: excitation energy (eV) =    5.1305
 Total energy for state  6:                  -986.46882235 au
    Multiplicity: Singlet
    Trans. Mom.: -0.0007 X  -0.0547 Y   0.1235 Z
    Strength   :     0.0022933747
    X: D(   85) --> V(    1) amplitude = -0.3575
    X: D(   86) --> V(    1) amplitude =  0.4256
    X: D(   86) --> V(    3) amplitude =  0.3675
    X: D(   88) --> V(    4) amplitude =  0.3122
    X: D(   89) --> V(    4) amplitude = -0.4541

 Excited state   7: excitation energy (eV) =    5.1565
 Total energy for state  7:                  -986.46786807 au
    Multiplicity: Singlet
    Trans. Mom.:  0.0040 X  -0.2656 Y   0.2435 Z
    Strength   :     0.0164035192
    X: D(   90) --> V(    3) amplitude =  0.6363
    X: D(   90) --> V(    5) amplitude =  0.4528
    X: D(   90) --> V(    6) amplitude =  0.3104

 Excited state   8: excitation energy (eV) =    5.1898
 Total energy for state  8:                  -986.46664425 au
    Multiplicity: Singlet
    Trans. Mom.:  0.1402 X   0.1985 Y  -0.3661 Z
    Strength   :     0.0245460841
    X: D(   85) --> V(    1) amplitude =  0.4264
    X: D(   86) --> V(    1) amplitude =  0.2169
    X: D(   89) --> V(    5) amplitude = -0.2730
    X: D(   90) --> V(    3) amplitude =  0.4656
    X: D(   90) --> V(    5) amplitude = -0.4337
    X: D(   90) --> V(    6) amplitude =  0.2193

 Excited state   9: excitation energy (eV) =    5.4166
 Total energy for state  9:                  -986.45830939 au
    Multiplicity: Singlet
    Trans. Mom.:  0.4825 X  -0.3385 Y  -0.0139 Z
    Strength   :     0.0461276803
    X: D(   87) --> V(    1) amplitude = -0.3923
    X: D(   88) --> V(    1) amplitude =  0.6114
    X: D(   89) --> V(    3) amplitude = -0.5019
    X: D(   90) --> V(    3) amplitude = -0.2568
    X: D(   90) --> V(    6) amplitude = -0.2200

 Excited state  10: excitation energy (eV) =    5.5468
 Total energy for state 10:                  -986.45352452 au
    Multiplicity: Singlet
    Trans. Mom.: -0.0684 X  -0.2127 Y  -0.1411 Z
    Strength   :     0.0094860073
    X: D(   85) --> V(    1) amplitude =  0.2842
    X: D(   86) --> V(    1) amplitude =  0.2151
    X: D(   87) --> V(    1) amplitude = -0.4841
    X: D(   88) --> V(    1) amplitude = -0.3574
    X: D(   89) --> V(    2) amplitude =  0.6452

 ---------------------------------------------------

 Final energy is   -986.657364199952
 **  OPTIMIZATION CONVERGED  **

                    Orbital Energies (a.u.)
 --------------------------------------------------------------

 Alpha MOs
 -- Occupied --
-14.3814 -10.3070 -10.3061 -10.3055 -10.3042 -10.2930 -10.2926 -10.2918
-10.2910 -10.2909 -10.2903 -10.2903 -10.2902 -10.2901 -10.2900 -10.2897
-10.2895 -10.2889 -10.2878 -10.2877 -10.2838 -10.2817 -10.2620 -10.2553
-10.2501  -1.0019  -0.9807  -0.9660  -0.9485  -0.8962  -0.8595  -0.8556
 -0.8529  -0.8496  -0.8456  -0.8446  -0.8084  -0.7947  -0.7413  -0.7240
 -0.7198  -0.7064  -0.7005  -0.6960  -0.6738  -0.6699  -0.6327  -0.6324
 -0.6131  -0.5770  -0.5731  -0.5687  -0.5663  -0.5460  -0.5429  -0.5375
 -0.5367  -0.5226  -0.5185  -0.5123  -0.5106  -0.5087  -0.5011  -0.4986
 -0.4956  -0.4822  -0.4780  -0.4706  -0.4657  -0.4599  -0.4585  -0.4486
 -0.4429  -0.4411  -0.4378  -0.4325  -0.4286  -0.4232  -0.4220  -0.4134
 -0.4073  -0.4013  -0.3961  -0.3747  -0.3381  -0.3356  -0.3335  -0.3330
 -0.2800  -0.2375

          Ground-State Mulliken Net Atomic Charges

     Atom                 Charge (a.u.)
  ----------------------------------------
      1 C                    -0.309958
      2 C                    -0.117574
      3 N                    -0.410412
      4 H                     0.107489
      5 H                     0.110541
      6 H                     0.134281
      7 H                     0.103898
      8 C                    -0.052617
      9 H                     0.091214
     10 H                     0.126411
     11 H                     0.118318
     12 C                    -0.374021
     13 H                     0.113041
     14 H                     0.122204
     15 H                     0.123314
     16 C                    -0.145805
     17 H                     0.112679
     18 H                     0.115056
     19 C                    -0.298965
     20 H                     0.105122
     21 H                     0.112806
     22 H                     0.112688
     23 C                    -0.019197
     24 C                    -0.077491
     25 H                     0.116408
     26 C                    -0.112886
     27 H                     0.124332
     28 C                    -0.147175
     29 H                     0.122440
     30 C                    -0.109316
     31 H                     0.119646
     32 C                    -0.120414
     33 H                     0.125937
     34 C                    -0.052415
     35 C                    -0.120410
     36 H                     0.122644
     37 C                    -0.103058
     38 H                     0.122411
     39 C                    -0.014909
     40 C                    -0.110885
     41 H                     0.120124
     42 C                    -0.112952
     43 H                     0.121714
     44 C                    -0.046433
     45 C                    -0.103064
     46 H                     0.123821
     47 C                    -0.121709
     48 H                     0.122611
     49 C                    -0.115033
     50 H                     0.123815
     51 C                    -0.121751
     52 H                     0.122759
     53 C                    -0.103672
     54 H                     0.124399
  ----------------------------------------
  Sum of atomic charges =     0.000000

                    Cartesian Multipole Moments
 -----------------------------------------------------------------
    Charge (ESU x 10^10)
                -0.0000
    Dipole Moment (Debye)
         X      -0.1593      Y      -0.1789      Z       0.0096
       Tot       0.2397
    Quadrupole Moments (Debye-Ang)
        XX    -137.9190     XY      -5.7512     YY    -158.6350
        XZ      -2.0445     YZ     -10.6977     ZZ    -142.6051

 Total job time:  113940.35s(wall), 1377459.84s(cpu)
        *  Thank you very much for using Q-Chem.  Have a nice day.  *
